93
./10.log	Energy: -1304479.9525688
O          0.25580       -2.82275       -1.26456
P         -0.17179       -1.39886       -1.10534
H         -0.21081       -0.74089       -2.35906
N          0.71561       -0.41383       -0.04231
C          2.11448       -0.22093       -0.11688
C          2.91935       -1.14096       -0.79984
C          4.30391       -0.94414       -0.90644
C          5.13916       -1.98705       -1.66611
C          6.62812       -1.61360       -1.71876
C          4.61475       -2.10292       -3.11293
C          5.00240       -3.35311       -0.96074
C          4.86810        0.18330       -0.30028
C          4.08557        1.11183        0.40779
C          4.75371        2.33933        1.04812
C          3.74237        3.23869        1.77687
C          5.43694        3.17598       -0.05396
C          5.81036        1.86999        2.06974
C          2.70828        0.89853        0.49249
C         -0.11371        0.34083        0.89123
C         -0.35235        1.78928        0.49133
C         -0.23636        2.22315       -0.83316
C         -0.49042        3.55572       -1.16829
C         -0.86476        4.47101       -0.18126
C         -0.97959        4.04591        1.14580
C         -0.72298        2.71406        1.47718
C         -1.45192       -0.45009        0.98956
C         -1.47258       -1.46594        2.11625
C         -2.19322       -1.17088        3.28042
C         -2.20133       -2.05632        4.36134
C         -1.48591       -3.25342        4.28454
C         -0.76947       -3.55808        3.12281
C         -0.76207       -2.67347        2.04247
N         -1.63020       -1.02450       -0.35030
C         -2.87534       -1.61769       -0.72332
C         -3.98922       -0.79551       -1.00336
C         -3.89195        0.71524       -0.96570
C         -4.70191        1.32492        0.19571
C         -4.53773        2.84581        0.25693
C         -4.91476        3.50420       -1.07410
C         -4.13118        2.89404       -2.24074
C         -4.29896        1.37246       -2.29859
C         -5.19980       -1.42482       -1.33022
C         -5.30581       -2.81387       -1.41257
C         -4.18719       -3.61228       -1.16417
C         -2.97809       -3.01473       -0.81029
H          2.45662       -2.02949       -1.22701
H          6.78953       -0.64994       -2.22617
H          7.06941       -1.54973       -0.71230
H          7.18500       -2.38191       -2.27711
H          3.56133       -2.41814       -3.13945
H          4.69259       -1.13670       -3.63605
H          5.20211       -2.84636       -3.67597
H          3.95668       -3.69307       -0.93315
H          5.59316       -4.11926       -1.48895
H          5.36549       -3.29447        0.07736
H          5.94082        0.35014       -0.37197
H          3.23640        2.70375        2.59529
H          4.26312        4.10312        2.21705
H          2.97079        3.62632        1.09419
H          6.20534        2.59710       -0.58733
H          4.69951        3.51952       -0.79617
H          5.92525        4.06289        0.38191
H          6.30343        2.73626        2.54031
H          5.34450        1.26620        2.86418
H          6.59051        1.25596        1.59603
H          2.08258        1.61743        1.01018
H          0.36626        0.32672        1.88151
H          0.07778        1.51906       -1.60444
H         -0.38979        3.88089       -2.20629
H         -1.06186        5.51280       -0.44368
H         -1.26627        4.75512        1.92573
H         -0.80683        2.38656        2.51756
H         -2.25606        0.27327        1.17342
H         -2.76039       -0.23712        3.33821
H         -2.77288       -1.81372        5.26049
H         -1.49186       -3.95153        5.12508
H         -0.21342       -4.49605        3.05317
H         -0.20945       -2.93556        1.13798
H         -2.83591        0.97599       -0.80525
H         -5.76858        1.06992        0.06241
H         -4.39687        0.86260        1.14942
H         -5.14744        3.26079        1.07700
H         -3.48706        3.08440        0.49337
H         -5.99742        3.36800       -1.25311
H         -4.74047        4.59197       -1.02446
H         -4.44777        3.34695       -3.19506
H         -3.06094        3.13215       -2.11608
H         -5.35149        1.12821       -2.52698
H         -3.69579        0.94640       -3.11704
H         -6.07803       -0.80964       -1.53978
H         -6.26208       -3.27191       -1.67655
H         -4.25574       -4.70026       -1.23314
H         -2.09363       -3.61830       -0.60748
