86
./17.log	Energy: -1278305.7856045
O         -0.39962       -2.73312        0.16315
P         -0.51079       -1.52554       -0.69885
H         -0.40666       -1.86273       -2.07419
N          0.58149       -0.22947       -0.46824
C          1.93819       -0.46257       -0.14011
C          2.56948       -1.63607       -0.59465
C          3.90702       -1.89162       -0.30093
C          4.60258       -3.18719       -0.74727
C          5.80468       -2.84041       -1.64980
C          3.65779       -4.11275       -1.52968
C          5.09647       -3.94680        0.50221
C          4.63115       -0.92933        0.43015
C          4.03389        0.24678        0.88591
C          4.80043        1.33346        1.65597
C          4.14034        1.55245        3.03329
C          4.75001        2.64796        0.84648
C          6.27224        0.95656        1.88058
C          2.67258        0.45695        0.61091
C         -0.08646        1.01770       -0.09251
C          0.57627        2.26488       -0.63784
C          0.48953        3.46414        0.07885
C          1.06165        4.63450       -0.42636
C          1.72782        4.61386       -1.65457
C          1.81299        3.41901       -2.37619
C          1.23750        2.25173       -1.87150
C         -1.52915        0.89530       -0.65198
C         -2.50222        1.80778        0.05329
C         -2.93242        1.53815        1.35969
C         -3.79804        2.41579        2.01280
C         -4.23798        3.57829        1.37081
C         -3.80832        3.85656        0.07144
C         -2.94659        2.97215       -0.58302
N         -1.86487       -0.53039       -0.53498
C         -3.21006       -0.99860       -0.66949
C         -3.81533       -1.67522        0.44282
C         -3.10831       -1.97814        1.63990
C         -3.73638       -2.61225        2.69091
C         -5.10108       -2.98017        2.60387
C         -5.81094       -2.71102        1.45458
C         -5.19403       -2.05919        0.35169
C         -5.91159       -1.77299       -0.83925
C         -5.29336       -1.15230       -1.89781
C         -3.92791       -0.76183       -1.83849
C         -3.30716       -0.10389       -3.04348
H          1.99338       -2.36326       -1.16107
H          5.47518       -2.29242       -2.54653
H          6.54187       -2.21401       -1.12582
H          6.31756       -3.75924       -1.97783
H          3.29939       -3.63903       -2.45689
H          4.18969       -5.03415       -1.81303
H          2.78073       -4.40177       -0.93088
H          4.25256       -4.20095        1.16202
H          5.59933       -4.88303        0.20962
H          5.81196       -3.34881        1.08603
H          5.68201       -1.11539        0.64175
H          3.09349        1.87681        2.93727
H          4.15174        0.62406        3.62544
H          4.68019        2.32885        3.59951
H          3.71789        2.99255        0.68454
H          5.29456        3.44698        1.37599
H          5.21366        2.51391       -0.14330
H          6.37091        0.03228        2.47038
H          6.80617        0.81462        0.92855
H          6.78339        1.76068        2.43235
H          2.19711        1.36461        0.96935
H         -0.14732        1.09976        1.00819
H         -0.02853        3.47883        1.04088
H          0.98983        5.56380        0.14361
H          2.18397        5.52577       -2.04696
H          2.33851        3.39465       -3.33384
H          1.31806        1.31219       -2.42175
H         -1.48072        1.20394       -1.70900
H         -2.59926        0.62887        1.86086
H         -4.13440        2.18859        3.02711
H         -4.91683        4.26427        1.88310
H         -4.14563        4.76306       -0.43663
H         -2.60522        3.19192       -1.59772
H         -2.04867       -1.74122        1.70490
H         -3.17078       -2.84168        3.59702
H         -5.58451       -3.48225        3.44525
H         -6.86284       -2.99596        1.37024
H         -6.96300       -2.06380       -0.90543
H         -5.85231       -0.95426       -2.81597
H         -2.24917       -0.37804       -3.15858
H         -3.83705       -0.39797       -3.96090
H         -3.35960        0.99603       -2.97502
