90
./19.log	Energy: -1350113.3097782
O          0.49071       -2.35955        1.44077
P          0.79086       -0.92937        1.12969
H          0.83242       -0.15530        2.31654
N         -0.23993       -0.13784        0.03005
C         -1.65450       -0.15817        0.09201
C         -2.32235       -1.17596        0.77723
C         -3.72015       -1.21011        0.88115
C         -4.32740       -2.46853        1.55338
C         -4.09608       -2.40180        3.07789
C         -3.59951       -3.72291        1.00679
C         -5.82525       -2.69667        1.26577
C         -4.44407       -0.12875        0.32643
O         -5.80315       -0.00430        0.53906
C         -6.15896        0.51824        1.80611
C         -3.80673        0.84528       -0.48438
C         -4.60222        1.88100       -1.31227
C         -5.59452        1.13487       -2.23116
C         -3.67256        2.71635       -2.21334
C         -5.37118        2.87501       -0.41646
C         -2.41132        0.81282       -0.57504
C          0.46740        0.66818       -0.95934
C          0.55054        2.14943       -0.61427
C          1.02849        3.04737       -1.57906
C          1.17539        4.40256       -1.28090
C          0.83844        4.88035       -0.01005
C          0.34621        3.99476        0.95124
C          0.20088        2.63769        0.64863
C          1.87885        0.02860       -1.08225
C          2.00042       -1.02947       -2.16011
C          3.11322       -1.02211       -3.00811
C          3.28863       -2.02719       -3.96464
C          2.34249       -3.04707       -4.08430
C          1.22302       -3.05712       -3.24404
C          1.05414       -2.05877       -2.28549
N          2.16364       -0.50290        0.26348
C          3.51140       -0.73218        0.67924
C          4.25190        0.39787        1.16557
C          3.67265        1.69086        1.28636
C          4.41390        2.76118        1.74233
C          5.77198        2.59343        2.10652
C          6.36022        1.35007        2.00937
C          5.62418        0.22823        1.54029
C          6.20097       -1.06537        1.43551
C          5.45982       -2.12941        0.98029
C          4.09837       -1.99117        0.58239
C          3.37442       -3.19976        0.04772
H         -1.72877       -1.97511        1.21242
H         -4.49062       -3.30767        3.56652
H         -3.02310       -2.32924        3.31191
H         -4.59658       -1.53051        3.52706
H         -3.69933       -3.78545       -0.08805
H         -2.52912       -3.74179        1.25114
H         -4.05050       -4.62790        1.44277
H         -6.04312       -2.63608        0.19024
H         -6.09804       -3.70572        1.61328
H         -6.48192       -1.98866        1.78132
H         -7.24621        0.68145        1.79492
H         -5.91371       -0.17810        2.62431
H         -5.65139        1.47656        2.00581
H         -5.05542        0.46364       -2.91819
H         -6.30269        0.53679       -1.64450
H         -6.16427        1.85692       -2.83902
H         -2.96795        3.33013       -1.63115
H         -3.09203        2.08652       -2.90411
H         -4.28128        3.40145       -2.82267
H         -4.70315        3.33442        0.32935
H         -5.79149        3.68467       -1.03479
H         -6.20557        2.39555        0.10575
H         -1.90112        1.57335       -1.15468
H         -0.04371        0.56267       -1.92912
H          1.29468        2.67872       -2.57410
H          1.55293        5.08919       -2.04227
H          0.95270        5.94087        0.22593
H          0.07097        4.35985        1.94352
H         -0.19319        1.95107        1.39838
H          2.61053        0.82150       -1.29029
H          3.85838       -0.22820       -2.90794
H          4.16667       -2.01307       -4.61483
H          2.47604       -3.83517       -4.82920
H          0.48211       -3.85549       -3.32928
H          0.19794       -2.09678       -1.60987
H          2.62866        1.83173        1.01699
H          3.94423        3.74441        1.82280
H          6.34906        3.44841        2.46659
H          7.40611        1.20691        2.29333
H          7.24538       -1.20381        1.72695
H          5.91870       -3.11877        0.91002
H          3.82150       -4.11968        0.45252
H          2.30843       -3.19195        0.30352
H          3.46050       -3.24572       -1.05026
