107
./3.log	Energy: -1497956.0497910
O          0.29600        2.21593       -2.77689
P          0.16348        2.63759       -1.35233
H          0.04931        4.03315       -1.20493
N         -1.10648        1.97771       -0.39492
C         -2.45658        1.78580       -0.79952
C         -3.14325        0.65575       -0.33406
C         -4.46224        0.35331       -0.69127
C         -5.12506        1.25022       -1.53314
C         -4.46555        2.39873       -1.97767
C         -3.14391        2.70395       -1.63402
C         -2.52926        3.98325       -2.13912
C         -0.56030        1.18091        0.71333
C         -0.35146       -0.29637        0.39749
C         -0.16121       -0.75674       -0.91161
C          0.04549       -2.11713       -1.15406
C          0.07198       -3.03094       -0.09697
C         -0.10763       -2.57612        1.21279
C         -0.32013       -1.21630        1.45441
C          0.78701        1.85383        1.04424
C          0.71124        3.11422        1.89360
C          1.90435        3.59586        2.45445
C          1.91958        4.77881        3.19350
C          0.73619        5.50008        3.38440
C         -0.45559        5.02801        2.83135
C         -0.46952        3.84257        2.08877
N          1.36969        2.15285       -0.27408
C          2.67687        1.72976       -0.64250
C          3.54816        2.60500       -1.32368
C          3.11776        3.99529       -1.70562
C          4.82506        2.12365       -1.63323
C          5.24251        0.83688       -1.28209
C          4.37639       -0.03758       -0.61246
C          3.09294        0.43678       -0.31262
H         -2.62330       -0.04861        0.30417
H         -6.15271        1.07418       -1.84906
H         -5.00265        3.10152       -2.62034
H         -3.28730        4.59613       -2.64637
H         -2.11089        4.58458       -1.31586
H         -1.72072        3.79135       -2.86346
H         -1.23823        1.26404        1.57591
H         -0.18027       -0.05725       -1.74948
H          0.18961       -2.46263       -2.18002
H          0.23464       -4.09330       -0.29188
H         -0.08902       -3.28144        2.04693
H         -0.47439       -0.86555        2.47932
H          1.43613        1.13192        1.55320
H          2.83140        3.03706        2.30007
H          2.85683        5.13866        3.62482
H          0.74453        6.42625        3.96387
H         -1.38461        5.58502        2.97512
H         -1.40644        3.49721        1.65016
H          3.97822        4.60478       -2.01608
H          2.40464        3.96890       -2.54706
H          2.61852        4.50033       -0.86326
H          5.52082        2.78470       -2.15711
H          6.25346        0.52545       -1.54324
H          2.37746       -0.22497        0.17271
C          4.73788       -1.47384       -0.24257
C          3.82201       -2.45349       -1.02406
C          4.51981       -1.71200        1.27555
C          6.20303       -1.82928       -0.57339
C          4.12687       -3.91099       -0.64542
H          3.96856       -2.29683       -2.10585
H          2.76768       -2.22616       -0.81155
C          4.82537       -3.17026        1.65245
H          5.16470       -1.02266        1.84637
H          3.47912       -1.47457        1.54620
C          6.51503       -3.28801       -0.19654
H          6.88337       -1.14975       -0.03315
H          6.38757       -1.68203       -1.65008
C          5.59137       -4.23265       -0.98439
C          3.89224       -4.10475        0.86280
H          3.45680       -4.57894       -1.21297
C          6.28901       -3.49148        1.31061
H          4.65745       -3.30676        2.73414
H          7.56691       -3.50578       -0.44611
H          5.82056       -5.28251       -0.73384
H          5.76328       -4.11421       -2.06774
H          2.84027       -3.88390        1.11042
H          4.07990       -5.15485        1.14501
H          6.52770       -4.53087        1.59356
H          6.96451       -2.83677        1.88728
C         -5.06632       -0.95223       -0.18021
C         -5.04070       -0.99148        1.37092
C         -4.23132       -2.15109       -0.71025
C         -6.52710       -1.15338       -0.63597
C         -5.59569       -2.32528        1.89573
H         -5.63047       -0.14645        1.76432
H         -4.00900       -0.85492        1.73166
C         -4.78925       -3.48276       -0.18492
H         -4.24217       -2.13610       -1.81285
H         -3.17887       -2.04267       -0.40490
C         -7.09017       -2.48566       -0.11207
H         -6.57777       -1.13942       -1.73708
H         -7.14848       -0.31737       -0.27377
C         -7.04921       -2.49431        1.42493
C         -4.73925       -3.48277        1.35277
H         -5.56000       -2.32319        2.99827
C         -6.24386       -3.65026       -0.65309
H         -4.17378       -4.31064       -0.57524
H         -8.13255       -2.59463       -0.45531
H         -7.46758       -3.43964        1.81059
H         -7.67382       -1.67776        1.82564
H         -3.69548       -3.37395        1.69418
H         -5.10996       -4.44494        1.74548
H         -6.65142       -4.61211       -0.29776
H         -6.28618       -3.66929       -1.75540
