105
./6.log	Energy: -1473409.6163538
O          0.98115        2.65763        0.01805
P          0.94217        1.35837        0.75862
H          1.40990        1.45891        2.08165
N          1.84150        0.07101        0.08931
C          3.23070        0.14117       -0.15239
C          4.00051       -1.03388       -0.22829
C          5.37865       -0.97386       -0.44272
C          6.24146       -2.24465       -0.50699
C          5.40642       -3.52424       -0.33907
C          7.29058       -2.20134        0.62388
C          6.95673       -2.30773       -1.87257
C          5.98480        0.28712       -0.58106
C          5.24095        1.47030       -0.52255
C          5.87247        2.86084       -0.69637
C          5.26988        3.53448       -1.94750
C          7.39719        2.79039       -0.86807
C          5.56196        3.72024        0.54734
C          3.85644        1.38363       -0.31687
C          1.11529       -1.18565        0.00874
C          1.37387       -2.15448        1.15314
C          1.17232       -3.52498        0.93933
C          1.36575       -4.44472        1.97186
C          1.76773       -4.00136        3.23541
C          1.97582       -2.63708        3.45421
C          1.78084       -1.71994        2.41856
C         -0.38071       -0.77403       -0.07094
C         -0.85068       -0.59886       -1.50789
C         -1.45601       -1.68369       -2.15653
C         -1.88338       -1.57613       -3.48163
C         -1.70739       -0.37424       -4.17322
C         -1.10321        0.71031       -3.53119
C         -0.67646        0.60351       -2.20482
N         -0.49527        0.42916        0.75774
C         -1.77534        0.94026        1.05729
C         -1.90033        2.09338        1.85702
O         -0.73421        2.60869        2.35051
C         -0.57209        4.01855        2.36184
C         -3.15910        2.63468        2.11170
C         -4.30711        2.02682        1.59973
C         -4.21874        0.86241        0.82436
C         -2.94455        0.33637        0.57374
H          3.51858       -1.99541       -0.08956
H          6.06325       -4.40640       -0.39099
H          4.88670       -3.55171        0.63080
H          4.65102       -3.62500       -1.13354
H          7.94955       -1.32505        0.53447
H          6.80001       -2.15390        1.60866
H          7.92369       -3.10337        0.59786
H          6.22552       -2.33475       -2.69558
H          7.60846       -1.43597       -2.03192
H          7.58287       -3.21253       -1.93882
H          7.05981        0.33649       -0.74150
H          5.47471        2.93649       -2.84937
H          4.17941        3.64917       -1.86044
H          5.70567        4.53659       -2.09289
H          7.88476        2.32657        0.00333
H          7.68137        2.21859       -1.76473
H          7.80701        3.80634       -0.97871
H          5.97379        3.25507        1.45693
H          6.00731        4.72305        0.44266
H          4.47911        3.84701        0.69295
H          3.24302        2.28334       -0.31004
H          1.37559       -1.68898       -0.93492
H          0.86901       -3.87569       -0.05175
H          1.20993       -5.51051        1.78817
H          1.92515       -4.71814        4.04471
H          2.29839       -2.28323        4.43629
H          1.97038       -0.66001        2.59079
H         -0.97380       -1.57429        0.39483
H         -1.60840       -2.62017       -1.61121
H         -2.36087       -2.42824       -3.97148
H         -2.04479       -0.28214       -5.20836
H         -0.96560        1.65397       -4.06443
H         -0.21924        1.46521       -1.71366
H         -0.85816        4.45060        1.39058
H         -1.15877        4.48259        3.17241
H          0.49510        4.20929        2.53264
H         -3.24314        3.53397        2.72351
H         -5.27826        2.47704        1.81184
H         -2.85461       -0.54320       -0.05096
C         -5.47694        0.22177        0.23977
C         -6.18153        1.22320       -0.71435
C         -6.46819       -0.15493        1.37185
C         -5.17269       -1.06018       -0.56921
C         -7.47257        0.61890       -1.29004
H         -5.48654        1.49483       -1.52625
H         -6.41476        2.15318       -0.17183
C         -7.75936       -0.75786        0.79442
H         -5.98080       -0.87051        2.05512
H         -6.71065        0.73818        1.96937
C         -6.46046       -1.67046       -1.14619
H         -4.67252       -1.79860        0.07956
H         -4.47598       -0.82944       -1.39126
C         -7.13333       -0.65373       -2.08273
C         -8.42963        0.26625       -0.13796
H         -7.95078        1.35586       -1.95694
C         -7.42031       -2.02931       -0.00016
H         -8.44350       -1.00840        1.62253
H         -6.20190       -2.58081       -1.71266
H         -8.04953       -1.08680       -2.51913
H         -6.45964       -0.40889       -2.92138
H         -8.69272        1.17677        0.42724
H         -9.37095       -0.14608       -0.53945
H         -8.34127       -2.48391       -0.40337
H         -6.95495       -2.77760        0.66390
