109
./7.log	Energy: -1545223.3119200
O          1.05058        2.53466       -0.50197
P          1.08640        1.39055        0.46121
H          1.54430        1.76289        1.73902
N          2.05760        0.05221        0.03630
C          3.44499        0.14344       -0.20195
C          4.26542       -0.98358       -0.09040
C          5.65079       -0.89452       -0.30037
C          6.50215       -2.16295       -0.12998
C          6.34600       -2.68504        1.31479
C          7.99274       -1.90155       -0.39260
C          6.01713       -3.24206       -1.12059
C          6.19586        0.34803       -0.63048
C          5.39162        1.49632       -0.76469
C          6.04130        2.83472       -1.15067
C          7.08956        3.21654       -0.08453
C          5.01264        3.97204       -1.24657
C          6.73216        2.68773       -2.52263
C          4.01772        1.38219       -0.55535
C          1.39705       -1.23319        0.19606
C          1.70904       -1.95798        1.49710
C          1.57744       -3.35267        1.54414
C          1.82671       -4.05394        2.72558
C          2.21561       -3.36425        3.87791
C          2.35377       -1.97445        3.83676
C          2.10262       -1.27641        2.65300
C         -0.11872       -0.92213        0.05417
C         -0.59285       -1.04521       -1.38752
C         -0.49312        0.01651       -2.29553
C         -0.92771       -0.14831       -3.61336
C         -1.46451       -1.36705       -4.03794
C         -1.56381       -2.43003       -3.13579
C         -1.12943       -2.26576       -1.81888
N         -0.29612        0.40609        0.64477
C         -1.60403        0.91308        0.83063
C         -1.79817        2.17494        1.40979
O         -0.67641        2.83166        1.83353
C         -0.56762        4.22056        1.56182
C         -3.08392        2.70071        1.54319
C         -4.20398        1.97311        1.11966
O         -5.47056        2.47234        1.23478
C         -5.66577        3.75739        1.77028
C         -4.04930        0.68646        0.55070
C         -2.74300        0.19835        0.43677
H          3.83366       -1.93939        0.19406
H          6.94860       -3.59631        1.46208
H          6.68367       -1.92898        2.04082
H          5.30006       -2.93074        1.55166
H          8.56388       -2.83364       -0.26085
H          8.16912       -1.54411       -1.41872
H          8.40517       -1.15703        0.30538
H          4.96431       -3.51011       -0.94721
H          6.10739       -2.88889       -2.15973
H          6.61838       -4.15986       -1.01524
H          7.26784        0.43758       -0.79350
H          6.61871        3.32326        0.90533
H          7.88156        2.45766        0.00067
H          7.56888        4.17522       -0.34188
H          4.49486        4.13656       -0.28950
H          5.52020        4.91054       -1.51892
H          4.24819        3.77008       -2.01169
H          6.00199        2.41074       -3.29891
H          7.20576        3.63786       -2.81940
H          7.51373        1.91359       -2.50496
H          3.36041        2.23753       -0.69012
H          1.68454       -1.88813       -0.64076
H          1.28439       -3.89592        0.64065
H          1.72449       -5.14164        2.74527
H          2.41724       -3.90958        4.80281
H          2.66598       -1.42884        4.73036
H          2.23807       -0.19488        2.62281
H         -0.67079       -1.65170        0.66487
H         -0.08965        0.97979       -1.97591
H         -0.85012        0.68795       -4.31226
H         -1.80925       -1.48712       -5.06777
H         -1.98865       -3.38486       -3.45477
H         -1.22511       -3.09274       -1.10864
H         -0.79349        4.42814        0.50481
H         -1.22785        4.81223        2.21854
H          0.47578        4.49690        1.76065
H         -3.19846        3.68260        1.99533
H         -6.74785        3.94370        1.74928
H         -5.31180        3.82686        2.81482
H         -5.15699        4.53434        1.17148
H         -2.60280       -0.77089       -0.02230
C         -5.23338       -0.12994        0.02332
C         -4.78549       -1.49076       -0.56565
C         -5.95011        0.64596       -1.11680
C         -6.25341       -0.42980        1.15519
C         -5.98365       -2.29125       -1.10225
H         -4.27046       -2.08194        0.20999
H         -4.06285       -1.33042       -1.38159
C         -7.15585       -0.14720       -1.64573
H         -6.27871        1.62559       -0.74675
H         -5.22679        0.82740       -1.92955
C         -7.45785       -1.21615        0.61173
H         -6.59181        0.51142        1.60671
H         -5.74690       -1.00857        1.94632
C         -6.98082       -2.55839        0.03612
C         -6.67801       -1.49138       -2.21587
H         -5.61624       -3.24910       -1.50785
C         -8.14663       -0.39865       -0.49540
H         -7.65125        0.43806       -2.43892
H         -8.17017       -1.39679        1.43458
H         -7.83881       -3.14240       -0.33900
H         -6.50156       -3.16002        0.82738
H         -5.97792       -1.32031       -3.05127
H         -7.53134       -2.06324       -2.61928
H         -9.03276       -0.93958       -0.86966
H         -8.50300        0.56269       -0.08793
